Newtes                                                                  
SP        RB3LYP                                                      6-31+G(d)           
Number of atoms                            I                2
Info1-9                                    I   N=           9
           9           9           0           0           0         110
           1          18        -502
Charge                                     I                0
Multiplicity                               I                1
Number of electrons                        I               14
Number of alpha electrons                  I                7
Number of beta electrons                   I                7
Number of basis functions                  I               38
Number of independent functions            I               38
Number of point charges in /Mol/           I                0
Number of translation vectors              I                0
Atomic numbers                             I   N=           2
           6           8
Nuclear charges                            R   N=           2
  6.00000000E+00  8.00000000E+00
Current cartesian coordinates              R   N=           6
  0.00000000E+00  0.00000000E+00  0.00000000E+00  2.30546588E+00  0.00000000E+00
  0.00000000E+00
Number of symbols in /Mol/                 I                0
Force Field                                I                0
Atom Types                                 C   N=           2
                        
Int Atom Types                             I   N=           2
           0           0
MM charges                                 R   N=           2
  0.00000000E+00  0.00000000E+00
Integer atomic weights                     I   N=           2
          12          16
Real atomic weights                        R   N=           2
  1.20000000E+01  1.59949146E+01
Atom fragment info                         I   N=           2
           0           0
Atom residue num                           I   N=           2
           0           0
Nuclear spins                              I   N=           2
           0           0
Nuclear ZEff                               R   N=           2
 -3.60000000E+00 -5.60000000E+00
Nuclear QMom                               R   N=           2
  0.00000000E+00  0.00000000E+00
Nuclear GFac                               R   N=           2
  0.00000000E+00  0.00000000E+00
MicOpt                                     I   N=           2
          -1          -1
Number of residues                         I                0
Number of secondary structures             I                0
Number of contracted shells                I               10
Number of primitive shells                 I               24
Pure/Cartesian d shells                    I                1
Pure/Cartesian f shells                    I                0
Highest angular momentum                   I                2
Largest degree of contraction              I                6
Shell types                                I   N=          10
           0          -1          -1          -1           2           0
          -1          -1          -1           2
Number of primitives per shell             I   N=          10
           6           3           1           1           1           6
           3           1           1           1
Shell to atom map                          I   N=          10
           1           1           1           1           1           2
           2           2           2           2
Primitive exponents                        R   N=          24
  3.04752488E+03  4.57369518E+02  1.03948685E+02  2.92101553E+01  9.28666296E+00
  3.16392696E+00  7.86827235E+00  1.88128854E+00  5.44249258E-01  1.68714478E-01
  4.38000000E-02  8.00000000E-01  5.48467166E+03  8.25234946E+02  1.88046958E+02
  5.29645000E+01  1.68975704E+01  5.79963534E+00  1.55396162E+01  3.59993359E+00
  1.01376175E+00  2.70005823E-01  8.45000000E-02  8.00000000E-01
Contraction coefficients                   R   N=          24
  1.83473713E-03  1.40373228E-02  6.88426223E-02  2.32184443E-01  4.67941348E-01
  3.62311985E-01 -1.19332420E-01 -1.60854152E-01  1.14345644E+00  1.00000000E+00
  1.00000000E+00  1.00000000E+00  1.83107443E-03  1.39501722E-02  6.84450781E-02
  2.32714336E-01  4.70192898E-01  3.58520853E-01 -1.10777550E-01 -1.48026263E-01
  1.13076702E+00  1.00000000E+00  1.00000000E+00  1.00000000E+00
P(S=P) Contraction coefficients            R   N=          24
  0.00000000E+00  0.00000000E+00  0.00000000E+00  0.00000000E+00  0.00000000E+00
  0.00000000E+00  6.89990666E-02  3.16423961E-01  7.44308291E-01  1.00000000E+00
  1.00000000E+00  0.00000000E+00  0.00000000E+00  0.00000000E+00  0.00000000E+00
  0.00000000E+00  0.00000000E+00  0.00000000E+00  7.08742682E-02  3.39752839E-01
  7.27158577E-01  1.00000000E+00  1.00000000E+00  0.00000000E+00
Coordinates of each shell                  R   N=          30
  0.00000000E+00  0.00000000E+00  0.00000000E+00  0.00000000E+00  0.00000000E+00
  0.00000000E+00  0.00000000E+00  0.00000000E+00  0.00000000E+00  0.00000000E+00
  0.00000000E+00  0.00000000E+00  0.00000000E+00  0.00000000E+00  0.00000000E+00
  2.30546588E+00  0.00000000E+00  0.00000000E+00  2.30546588E+00  0.00000000E+00
  0.00000000E+00  2.30546588E+00  0.00000000E+00  0.00000000E+00  2.30546588E+00
  0.00000000E+00  0.00000000E+00  2.30546588E+00  0.00000000E+00  0.00000000E+00
Constraint Structure                       R   N=           6
  0.00000000E+00  0.00000000E+00  0.00000000E+00  2.30546588E+00  0.00000000E+00
  0.00000000E+00
Num ILSW                                   I              100
ILSW                                       I   N=         100
           0           1           0           0           2           0
           0           0           3           0         402          -1
           0           0           0           0           0           0
           0           0           1           0           0           0
           1           1           0           0           0           0
           0           0      100000           0          -1           0
           0           0           0           0           0           0
           0           0           0           1           0           0
           0           0           1           0           0           0
           0           0           4          40           0           0
           0           0           5           0           0           0
           0           0           0           0           0           0
           0           0           0           0           0           0
           0           0           0           0           0           0
           0           0           0           0           0           0
           0           0           0           0           0           0
           0           0           0           0
Num RLSW                                   I               40
RLSW                                       R   N=          40
  8.00000000E-01  7.20000000E-01  1.00000000E+00  8.10000000E-01  2.00000000E-01
  0.00000000E+00  0.00000000E+00  1.00000000E+00  0.00000000E+00  0.00000000E+00
  0.00000000E+00  0.00000000E+00  1.00000000E+00  0.00000000E+00  0.00000000E+00
  0.00000000E+00  0.00000000E+00  1.00000000E+00  0.00000000E+00  0.00000000E+00
  0.00000000E+00  0.00000000E+00  1.00000000E+00  0.00000000E+00  0.00000000E+00
  0.00000000E+00  0.00000000E+00  1.00000000E+00  0.00000000E+00  0.00000000E+00
  0.00000000E+00  0.00000000E+00  0.00000000E+00  0.00000000E+00  0.00000000E+00
  0.00000000E+00  0.00000000E+00  0.00000000E+00  1.00000000E+00  1.00000000E+00
MxBond                                     I                1
NBond                                      I   N=           2
           1           1
IBond                                      I   N=           2
           2           1
RBond                                      R   N=           2
  2.00000000E+00  2.00000000E+00
Virial Ratio                               R      2.012053080408912E+00
SCF Energy                                 R     -1.133045936406188E+02
Total Energy                               R     -1.133045936406188E+02
RMS Density                                R      7.115217359716111E-09
External E-field                           R   N=          35
  0.00000000E+00  0.00000000E+00  0.00000000E+00  0.00000000E+00  0.00000000E+00
  0.00000000E+00  0.00000000E+00  0.00000000E+00  0.00000000E+00  0.00000000E+00
  0.00000000E+00  0.00000000E+00  0.00000000E+00  0.00000000E+00  0.00000000E+00
  0.00000000E+00  0.00000000E+00  0.00000000E+00  0.00000000E+00  0.00000000E+00
  0.00000000E+00  0.00000000E+00  0.00000000E+00  0.00000000E+00  0.00000000E+00
  0.00000000E+00  0.00000000E+00  0.00000000E+00  0.00000000E+00  0.00000000E+00
  0.00000000E+00  0.00000000E+00  0.00000000E+00  0.00000000E+00  0.00000000E+00
IOpCl                                      I                0
IROHF                                      I                0
Alpha Orbital Energies                     R   N=          38
 -1.92761964E+01 -1.03464402E+01 -1.12906320E+00 -5.85043685E-01 -4.56204556E-01
 -4.56204556E-01 -3.94061002E-01 -7.19881387E-02 -7.19881387E-02  2.83011553E-02
  5.58657401E-02  6.95657710E-02  6.95657710E-02  1.77842476E-01  2.07476842E-01
  2.07476842E-01  2.57914941E-01  3.75358558E-01  6.28686231E-01  6.28686231E-01
  6.67232938E-01  1.01013420E+00  1.13365851E+00  1.13492463E+00  1.13492463E+00
  1.46115464E+00  1.47721843E+00  1.47721843E+00  1.49266877E+00  1.49267450E+00
  1.88753601E+00  1.88754105E+00  2.31056432E+00  2.50697603E+00  2.50697603E+00
  2.90168853E+00  3.95714726E+00  4.11975592E+00
Alpha MO coefficients                      R   N=        1444
 -5.84683381E-06  4.03063296E-04  2.90170596E-04  3.23239943E-16  1.24763795E-16
 -3.95370307E-05 -6.48490133E-04 -9.58421307E-17 -2.15187036E-16  2.06803540E-03
  1.14105353E-03 -1.00822509E-15  2.05178318E-16 -4.04092584E-04 -1.72102263E-04
 -1.72102263E-04  3.03711166E-16 -1.96038558E-16 -4.15202555E-17  9.92656864E-01
  2.52779939E-02 -1.07699852E-03  2.43424751E-16  2.17014368E-16  1.44645194E-02
  2.72330682E-04 -9.65644562E-16  4.18090326E-16 -5.48664665E-03  1.39221782E-04
  1.53417005E-15  4.31452269E-16 -8.36698701E-03 -8.45310251E-03 -8.45310251E-03
  7.06233858E-16 -3.23462745E-16 -2.48265584E-17  9.93177784E-01  4.82368634E-02
  3.21701059E-03  4.37263170E-17 -1.73225958E-16 -1.16781114E-02 -1.80309184E-03
 -4.19499591E-16  6.47563108E-17 -1.62139639E-03 -6.91477075E-04  1.12990384E-15
 -9.23971406E-17 -7.74671587E-03 -9.19206149E-03 -9.19206149E-03 -1.96521951E-16
  2.90548783E-16 -1.85698342E-16 -1.32237971E-04  4.74046193E-04  2.59790990E-04
 -4.43144681E-17  1.16939597E-16 -2.24516384E-03  1.88388072E-03  7.24675637E-16
 -1.91680045E-16  6.94603745E-03 -3.48463880E-03 -7.65707200E-16 -1.92221756E-16
 -8.14648204E-04  4.96770163E-04  4.96770163E-04 -1.12849662E-16  3.94590699E-16
  1.93491280E-16 -1.05041420E-01  2.07099829E-01  1.96605759E-01 -9.41277534E-15
 -2.40021346E-16  7.06679288E-02 -1.08527860E-02  4.37721015E-14  9.01310284E-16
  2.05242892E-02  1.82527163E-02 -1.74394726E-13  2.21903038E-16  2.94019533E-02
 -2.06906685E-02 -2.06906685E-02  4.16118114E-15  1.38380575E-16 -2.67637845E-16
 -2.02860516E-01  4.52085233E-01 -1.61326029E-01  7.94668573E-15 -7.25176622E-16
  4.07004213E-01 -4.40800087E-02 -5.65092027E-14 -4.21344628E-16 -4.89912358E-02
  3.59525956E-03  1.36374528E-13  2.30165395E-16  7.72825550E-03 -7.55278135E-03
 -7.55278135E-03  2.93589677E-15 -2.26744247E-17  2.29712323E-16  1.48888256E-01
 -3.37016903E-01 -9.74890978E-02 -3.15618232E-15  5.28321358E-16 -3.30599795E-01
 -1.88684496E-02  1.22590759E-14  1.01352084E-15 -4.83321810E-03  6.92897110E-03
 -6.24026094E-14  4.05752565E-16  3.45127072E-03  1.50275429E-02  1.50275429E-02
  1.26348623E-15  6.56446635E-17  1.73180020E-16 -1.14481213E-01  2.63807189E-01
  4.53486083E-01  1.34465196E-15  9.65038273E-16  4.25735206E-01  1.86775588E-01
 -1.74818056E-14  8.71167127E-16  5.58287948E-02  3.73815742E-03  4.64188540E-14
 -1.06992640E-15 -2.68117218E-02  3.82721991E-03  3.82721991E-03  5.68134334E-16
 -5.33132396E-17 -2.48198406E-17  9.02360463E-15  3.69751044E-14 -1.98990258E-15
  3.04042405E-01 -6.82399147E-02 -3.98309299E-13 -1.18992648E-13  1.14559212E-01
 -2.57119095E-02 -8.47958201E-13 -5.37288330E-13  1.42189540E-02 -3.19133184E-03
 -5.17089550E-15  9.56189295E-15  9.09269323E-15  3.56531115E-02 -8.00205906E-03
 -2.98194610E-17  1.59432520E-14  6.94999176E-14  2.72736335E-15  5.53500826E-01
 -1.24228885E-01 -3.60520415E-13 -1.01578333E-13  3.28004644E-01 -7.36180497E-02
  1.41420623E-12 -1.55648598E-13  3.72019807E-02 -8.34969052E-03  5.16909051E-14
  3.99322021E-14  3.95079775E-14 -3.22102259E-02  7.22933061E-03  8.59138261E-17
  4.05743358E-16  1.18139138E-14 -5.21630717E-15  6.82399147E-02  3.04042405E-01
 -8.59241942E-14 -2.98244826E-14  2.57119095E-02  1.14559212E-01 -1.89458095E-13
 -1.22997692E-13  3.19133184E-03  1.42189540E-02 -1.45480106E-15  2.05467363E-15
  2.22981457E-15  8.00205906E-03  3.56531115E-02 -1.24356986E-16  3.54550358E-15
  1.48625483E-14  3.59481902E-15  1.24228885E-01  5.53500826E-01 -7.81115005E-14
 -2.13598265E-14  7.36180497E-02  3.28004644E-01  3.18321252E-13 -3.61512536E-14
  8.34969052E-03  3.72019807E-02  1.11518493E-14  8.64627221E-15  8.75544428E-15
 -7.22933061E-03 -3.22102259E-02 -1.96852297E-16 -1.36340448E-01  2.78798459E-01
 -4.47051630E-01 -1.07700154E-15 -3.08577005E-15  4.96364732E-01 -1.40577347E-01
  2.16819365E-14 -1.82509290E-15  8.42259399E-02 -2.35155048E-02 -1.10062790E-13
  9.55683497E-17 -4.45713108E-02  8.17934164E-03  8.17934164E-03  1.88744737E-15
 -4.17699618E-16  8.96692133E-17  3.97403344E-03 -1.88349179E-02  3.26589384E-01
  7.07254735E-15 -5.69080276E-15  4.61722257E-03  1.50819596E-01 -2.31729038E-14
 -3.06074131E-15  2.94530597E-02  2.67076563E-02  7.79231064E-14 -3.04375600E-16
 -5.67444857E-04  3.10518658E-03  3.10518658E-03  8.15565637E-16  9.70677165E-17
  2.41717804E-16 -1.54159507E-17 -7.63359718E-16  8.49925244E-16 -3.37713721E-04
  5.43701046E-01  1.03811049E-14  4.30316378E-15 -3.07432081E-04  4.94949225E-01
  3.06519869E-14  1.95032848E-14 -1.86002357E-04  2.99453856E-01  1.39549579E-16
  8.60466002E-17 -4.67029318E-16  8.00748420E-06 -1.28916217E-02  1.10387817E-16
 -1.54440889E-16 -1.61870190E-15  1.40739976E-19  2.45353101E-04 -3.95005383E-01
  6.35888976E-15  2.57067727E-15  1.99147432E-04 -3.20616725E-01 -4.31353682E-14
  5.53236448E-15  1.32495992E-04 -2.13311467E-01 -1.26574537E-15 -6.24508197E-16
 -6.69366033E-16  6.24641340E-06 -1.00563918E-02 -2.02649519E-16  1.79155931E-13
  1.74190438E-12 -7.31784805E-13  5.43701046E-01  3.37713721E-04 -1.60836666E-11
 -6.72329584E-12  4.94949225E-01  3.07432081E-04 -4.92553421E-11 -3.23638429E-11
  2.99453856E-01  1.86002357E-04 -1.55397674E-13  2.27539627E-13  2.27150832E-13
 -1.28916217E-02 -8.00748420E-06  1.11160559E-16  2.71827511E-13  3.02617376E-12
  3.23217623E-13 -3.95005383E-01 -2.45353101E-04 -1.11692882E-11 -4.11690032E-12
 -3.20616725E-01 -1.99147432E-04  6.90639237E-11 -7.73407522E-12 -2.13311467E-01
 -1.32495992E-04  1.70088457E-12  1.23317079E-12  1.23336534E-12 -1.00563918E-02
 -6.24641340E-06  6.78705875E-17  3.32941045E-02 -1.27802999E-01  1.16085349E-01
  4.08033814E-11 -8.12043118E-16  1.05602721E-01  3.71533448E-01  5.49997336E-11
 -9.91250904E-16  2.11733838E+00  7.92082522E-01 -1.74754808E-10  2.25907759E-15
  4.63984931E-03  5.25189029E-03  5.25189029E-03  1.49277290E-12 -1.92080624E-16
  3.77734979E-17  3.38804192E-02 -1.18979189E-01 -5.13911782E-02 -1.10652553E-11
  1.31103013E-16 -2.05096207E-01  4.79749381E-02 -2.82971084E-11  9.15079800E-17
 -1.55584356E+00  3.80435541E-01  5.92986220E-11  3.72464541E-16 -1.80531992E-02
 -2.02741854E-03 -2.02741854E-03 -1.11612700E-12 -1.48435329E-16 -8.27415603E-17
 -5.74659705E-02  1.22074798E-01 -5.45913689E-02  7.45757852E-11 -5.31528320E-16
  4.22115750E-01 -1.17530617E-01  9.78676433E-11 -5.75022883E-16 -3.88128782E-01
  1.17255712E+00 -3.20266961E-10  1.50219888E-16 -3.20202476E-02  1.52521389E-04
  1.52521389E-04  3.00829197E-12 -1.30656732E-16 -1.76883123E-16  2.48509404E-02
 -8.48184530E-02  3.82734404E-02 -9.23180624E-12  2.49922808E-16 -1.00613477E-01
  2.72202800E-02 -3.11891616E-11 -2.21001219E-16 -2.89014500E-01 -1.21560251E-01
  6.20089297E-11  8.89045373E-16  5.99980026E-03 -4.31973780E-03 -4.31973780E-03
 -2.96535103E-12 -8.04838270E-18 -2.08305317E-17 -6.58805764E-16  1.35526333E-15
 -3.41421546E-16 -1.22566193E-05 -2.83354708E-01  2.25460754E-16 -1.53537993E-15
 -1.58197807E-05 -3.65729672E-01 -7.36136087E-15  8.82611967E-15  5.05838622E-05
  1.16942324E+00 -4.74317526E-16  2.93187336E-16  7.25411644E-17 -5.04881039E-07
 -1.16720946E-02 -2.47844177E-16  5.85396435E-16 -1.02709596E-15  1.68246985E-16
  4.68529299E-07  1.08316967E-02 -5.40214129E-15 -8.38121931E-16  2.89176984E-06
  6.68533939E-02  9.19478626E-15 -1.69371420E-15 -4.06584657E-06 -9.39962920E-02
  2.27342071E-16  1.39758525E-16  5.33871978E-16  5.83550448E-07  1.34908137E-02
  8.05659649E-17 -9.52907746E-12  1.91052045E-11  4.92490116E-12 -2.83354708E-01
  1.22566193E-05  5.95294578E-11  3.76557387E-12 -3.65729672E-01  1.58197807E-05
  1.49267578E-11  3.06983902E-10  1.16942324E+00 -5.05838622E-05 -9.74803777E-12
  2.21243585E-12  2.21258557E-12 -1.16720946E-02  5.04881040E-07 -2.33838048E-16
  1.65467554E-11 -3.50727387E-11  1.90187897E-12  1.08316967E-02 -4.68529299E-07
 -1.43754667E-10 -6.71023270E-12  6.68533939E-02 -2.89176984E-06  2.43542398E-11
  6.00568849E-12 -9.39962920E-02  4.06584657E-06  7.47119190E-12  4.98012210E-12
  4.98039471E-12  1.34908137E-02 -5.83550448E-07  1.23559364E-16 -5.64128209E-02
  3.50522238E-02  1.06047246E-02  3.51320215E-12 -2.81205910E-16  1.22885698E+00
 -1.28613879E-02  1.31678325E-11  1.68658029E-16  6.96771669E-03 -6.35355508E-01
  4.60970509E-11 -2.00645650E-15 -1.15855419E-02 -2.99655567E-02 -2.99655567E-02
  2.55693072E-13 -2.24657700E-16  1.20666226E-16  2.17710846E-02 -2.26350071E-02
 -1.20194329E-01  1.56122439E-11 -9.93954082E-16 -2.13488405E-01 -2.20912804E-01
  3.00628138E-11 -1.33021659E-15 -2.86883079E-01  1.88454312E+00 -1.18966951E-10
  4.82980400E-15  5.01838417E-02  2.49900403E-03  2.49900403E-03 -1.51226208E-12
 -3.95362025E-17 -2.55207746E-17  1.36206818E-13  1.16758129E-14  3.71064977E-13
 -7.50240397E-04  4.40837583E-02 -4.75894303E-12 -1.55020670E-14  2.70814461E-03
 -1.59129251E-01 -7.33090964E-12 -2.90867244E-12  1.79123628E-02 -1.05252167E+00
 -1.05880385E-13  1.32436307E-13  1.32406398E-13  2.09089598E-05 -1.22860024E-03
 -1.79629241E-16  2.98145935E-13 -2.11269360E-13  2.22901801E-13  4.16493686E-03
 -2.44729650E-01 -4.50442232E-12 -1.77085422E-13  7.53060689E-03 -4.42494773E-01
  1.49242449E-11 -4.33180951E-12 -3.15704014E-02  1.85506133E+00  2.07206113E-13
  2.48221841E-13  2.48328315E-13 -2.94634010E-04  1.73125502E-02  9.87613035E-17
 -7.99237004E-12 -6.82794467E-13 -2.18202139E-11  4.40837583E-02  7.50240397E-04
  2.79341942E-10  8.27238130E-13 -1.59129251E-01 -2.70814461E-03  4.30980897E-10
  1.71122036E-10 -1.05252167E+00 -1.79123628E-02  6.25477601E-12 -7.78596173E-12
 -7.78552711E-12 -1.22860024E-03 -2.09089598E-05  3.33199032E-17 -1.75396765E-11
  1.24079030E-11 -1.30884550E-11 -2.44729650E-01 -4.16493686E-03  2.64992968E-10
  1.04167009E-11 -4.42494773E-01 -7.53060689E-03 -8.77245986E-10  2.54204773E-10
  1.85506133E+00  3.15704014E-02 -1.22353961E-11 -1.46035934E-11 -1.46034977E-11
  1.73125502E-02  2.94634010E-04  1.91058407E-16  1.78108892E-02  1.03046738E-02
  1.67239984E-01  2.64706065E-11 -1.23167729E-15 -9.69460550E-01  1.45582525E-01
 -2.79063431E-11  1.28136518E-15 -2.84311661E+00 -1.59485795E+00 -2.15854062E-10
 -3.50410887E-15 -4.24766245E-02  3.32098920E-02  3.32098920E-02  1.26822558E-13
 -1.89345178E-16  1.93532815E-16  1.11931650E-01 -1.02925870E-01  6.18751371E-02
 -4.07184439E-11 -1.12982375E-15 -1.72437908E+00 -4.36811838E-02 -6.19026477E-11
  5.65341168E-17  5.27980061E+00 -7.65988650E-01  2.95522805E-10  3.27450726E-15
  7.96271091E-02  7.94196702E-02  7.94196702E-02  1.47659650E-12  5.22062316E-17
  2.63336862E-16  1.23570826E-01 -2.01874502E-01 -3.17698745E-01  6.23628434E-12
 -1.31868910E-15 -3.30106844E+00 -2.32692998E+00 -6.56974710E-12  3.46806067E-15
 -1.70123753E+00 -1.22850253E-01 -2.11583480E-11 -1.24468745E-15  2.99974034E-02
 -1.06395533E-02 -1.06395533E-02  3.51561461E-14  2.16192160E-16 -2.85306433E-16
 -5.37539767E-02  5.92208276E-02 -3.98883735E-01 -4.21921499E-12  1.47252871E-15
  1.32311865E+00 -1.18561412E+00 -2.93389192E-12 -1.46245066E-15  3.81799548E+00
 -1.13174982E+00  2.49119389E-11 -1.40205190E-15 -1.69877876E-02 -1.30994859E-02
 -1.30994859E-02 -1.35368228E-13  3.19066243E-16  7.74296435E-17 -9.50517464E-16
  6.67048023E-15 -7.69629616E-15  1.55988607E-03 -1.03351231E+00  3.19838639E-14
  3.03951432E-14 -2.34992652E-03  1.55695857E+00  7.12284505E-14  3.27311666E-14
  7.53231948E-04 -4.99058556E-01  1.08317703E-15 -6.50161497E-16 -3.45988581E-16
  4.33782173E-05 -2.87405102E-02  3.45409427E-16 -6.90366803E-16  1.04721357E-14
  3.18471936E-15 -8.54005218E-05  5.65826519E-02 -1.04659778E-14  8.10210392E-15
  3.22853020E-04 -2.13908295E-01 -1.14148084E-13  1.63791047E-14  2.31133791E-04
 -1.53139145E-01  2.61716837E-15  2.85941071E-15  2.30877187E-15 -9.45296535E-05
  6.26312154E-02  5.78149849E-16  4.21780997E-13 -5.87460846E-12  8.24121536E-12
 -1.03351231E+00 -1.55988607E-03 -9.94320228E-12 -1.74265034E-11  1.55695857E+00
  2.34992652E-03 -4.05401061E-11 -1.78493432E-11 -4.99058556E-01 -7.53231948E-04
 -9.48390184E-13 -1.33038203E-13 -1.35248923E-13 -2.87405102E-02 -4.33782173E-05
 -1.62810446E-16  5.69021713E-13 -5.66551094E-12 -6.62557731E-13  5.65826519E-02
  8.54005218E-05  2.81132222E-12 -1.71678265E-12 -2.13908295E-01 -3.22853020E-04
  6.09051366E-11 -9.48298530E-12 -1.53139145E-01 -2.31133791E-04 -5.50414433E-13
 -1.21349779E-12 -1.21289780E-12  6.26312154E-02  9.45296535E-05  6.81249124E-16
  9.03833085E-03  1.24580170E-01 -1.07140895E+00 -7.55431224E-12 -4.73524071E-15
  2.07872341E-01  1.56544671E+00  1.16425258E-11  6.09930652E-15  5.66672520E-01
 -4.02146572E-01 -6.26614633E-12 -1.70326999E-15  1.30646368E-01 -7.98838311E-03
 -7.98838311E-03 -2.58730995E-13 -1.64685656E-16 -2.06815388E-16 -2.60808092E-02
  1.66822857E-01 -2.80436501E-01 -3.53024772E-13 -5.46128502E-16 -5.78922789E-01
 -5.51528717E-02 -1.25167952E-12  1.24755628E-15 -6.09169805E-01  4.51090846E-01
  8.62208817E-13 -2.64638126E-15 -1.36999764E-01  7.29220595E-02  7.29220595E-02
  4.83102525E-13  1.92669716E-16  8.33538662E-16 -3.92979445E-02 -2.02378408E+00
 -8.35330342E-02  1.90422068E-12  1.20986204E-15  5.26169378E+00  1.43849775E+00
 -1.95669974E-12 -3.99058642E-15  7.02333312E-01  1.76906030E-01  2.41061922E-12
  4.85881269E-15 -9.96775310E-02 -4.86397043E-02 -4.86397043E-02  1.43445478E-13
 -9.30158024E-16  2.56722734E-15 -3.32863075E-03  2.77491647E-01  1.17529643E-02
  4.46242888E-12 -5.96626650E-15 -1.32611626E+00  2.14305552E-01 -6.33242457E-12
  1.14452341E-14 -3.08305626E+00  1.71083416E+00  1.80313854E-12 -7.19985591E-15
 -7.83224558E-02  1.48053461E-01  1.48053461E-01 -2.13133888E-13  4.36515914E-16
  8.20541394E-16  3.76504396E-02 -3.40229214E-01  1.98465064E-01  9.64001280E-11
 -9.15204981E-14  3.48415772E+00  1.72890664E+00  1.03610242E-10 -1.04164617E-13
  8.90841836E-01  4.05575596E-01 -3.23423395E-10  3.18893176E-13  2.70817772E-01
 -8.80578280E-02 -8.80578280E-02 -1.75967094E-11  1.66536284E-14  2.78075237E-16
  2.29693642E-02 -2.30790467E-02 -8.46536359E-01  7.10882253E-10 -6.85566015E-13
 -1.18819583E+00  2.60503100E+00 -1.21022241E-09  1.17008216E-12 -2.88096532E+00
  8.38324222E-02  7.84012027E-10 -7.60457147E-13 -7.12626668E-02 -3.67247964E-02
 -3.67247964E-02 -1.34812014E-11  1.45319019E-14  1.52289757E-15  3.27625097E-13
 -3.05306368E-12  1.74197228E-12 -1.63936848E-03 -1.28271484E-01  3.08089933E-11
  1.52479050E-11 -1.84924989E-03 -1.44693540E-01  7.91583395E-12  3.62244201E-12
  5.70299694E-03  4.46227857E-01  2.36366519E-12 -7.75396778E-13 -7.70032324E-13
  3.13024265E-04  2.44924113E-02  8.55721382E-16  2.06141356E-13 -5.24615317E-14
 -7.38546748E-12 -1.22897667E-02 -9.61606031E-01 -1.07660863E-11  2.28251858E-11
  2.09525636E-02  1.63942181E+00 -2.54228324E-11  8.30328622E-13 -1.36341763E-02
 -1.06679862E+00 -5.76072094E-13 -2.84572668E-13 -2.77988776E-13  2.29086304E-04
  1.79247318E-02  1.29057651E-15  2.76682290E-11 -2.59194907E-10  1.47160858E-10
 -1.28271484E-01  1.63936848E-03  2.60896046E-09  1.29104781E-09 -1.44693540E-01
  1.84924989E-03  6.69922508E-10  3.06059783E-10  4.46227857E-01 -5.70299694E-03
  1.99995622E-10 -6.53631227E-11 -6.53583391E-11  2.44924113E-02 -3.13024265E-04
  1.09860624E-15  1.74018315E-11 -5.63869426E-12 -6.25148453E-10 -9.61606031E-01
  1.22897667E-02 -9.08885925E-10  1.93156656E-09  1.63942181E+00 -2.09525636E-02
 -2.15290580E-09  7.11732162E-11 -1.06679862E+00  1.36341763E-02 -4.91545767E-11
 -2.41445523E-11 -2.41392164E-11  1.79247318E-02 -2.29086304E-04 -7.35858399E-16
 -2.62937228E-02 -2.36571020E-01 -8.76956447E-02 -2.70904636E-12  1.51512518E-14
 -8.53436856E-01 -1.03251854E+00 -2.35777279E-12 -4.95316434E-15  1.35947013E+00
  7.98147935E-01  9.14259445E-12  8.54111693E-15 -8.86556372E-02  6.61883935E-02
  6.61883935E-02  1.16715175E-11 -5.36397229E-14 -6.72145348E-14 -9.54447165E-02
 -1.95691530E+00  3.57246172E-03 -5.25889202E-12  1.79761643E-15  5.40628896E+00
 -7.23402908E-01  5.35145292E-12  2.72135900E-14 -3.05931904E+00  2.26929287E-01
 -8.27881930E-12 -2.22846552E-14 -6.67918198E-01 -3.55370011E-01 -3.55370011E-01
 -9.93729022E-12  4.71770460E-14 -5.48508449E-14  2.56430502E-13  2.65930037E-12
  8.03485280E-13 -1.24419184E-01 -1.80280989E-01  6.48116845E-12  9.44961951E-12
  6.44774691E-02  9.34266043E-02 -1.48123243E-11 -8.68360772E-12 -4.31213127E-02
 -6.24819472E-02  8.34770027E-13 -7.62560797E-13 -5.57919105E-13  3.60011881E-01
  5.21650245E-01 -5.33373994E-15  9.30922940E-13  1.92783743E-11  1.78029865E-13
 -2.57051310E-02 -3.72462371E-02 -5.30215724E-11  6.29017544E-12 -1.48176518E-01
 -2.14704905E-01  3.30874398E-11 -2.63940795E-12  9.62596107E-02  1.39478312E-01
  6.56734185E-12  3.35113598E-12  3.51186884E-12 -3.33788852E-01 -4.83653584E-01
  8.88433717E-15  3.77141004E-13  3.89215427E-12  1.17322413E-12 -1.80280989E-01
  1.24419184E-01  9.47903270E-12  1.38291191E-11  9.34266043E-02 -6.44774691E-02
 -2.16692876E-11 -1.27015348E-11 -6.24819472E-02  4.31213127E-02  1.22128607E-12
 -9.97479549E-13 -9.34725853E-13  5.21650245E-01 -3.60011881E-01  6.43934486E-15
  1.36207050E-12  2.82188867E-11  2.60891530E-13 -3.72462371E-02  2.57051310E-02
 -7.75992597E-11  9.20187372E-12 -2.14704905E-01  1.48176518E-01  4.84142831E-11
 -3.86402002E-12  1.39478312E-01 -9.62596107E-02  9.61665973E-12  4.99131022E-12
  5.04998422E-12 -4.83653584E-01  3.33788852E-01  3.62610022E-15 -3.78410084E-15
 -2.23389493E-14 -2.16876257E-14 -2.90852691E-14 -2.33500816E-14 -3.07516684E-13
 -2.62485195E-13  1.26098836E-14  9.88469586E-15  2.69217319E-13  1.61405506E-13
 -6.87560661E-15 -4.31219207E-15 -2.12396799E-14  6.39445645E-01 -6.39445645E-01
  8.49269392E-14  6.38432333E-14  1.09123278E-10 -1.94723460E-14 -4.16664732E-13
  7.96136182E-15 -1.06624620E-14 -1.14136057E-14  1.17119689E-12 -1.91353747E-13
 -2.57909176E-14 -1.53721423E-14 -5.65129396E-13  2.36416723E-14  1.73573860E-14
  1.12171011E-14 -1.42094344E-13  5.12717783E-01 -5.12717783E-01 -7.93812533E-14
 -6.06396871E-14  8.75058499E-11 -2.30340809E-15 -1.26128822E-14 -7.43583666E-15
  2.14915428E-15  5.92397393E-16 -1.05108409E-13 -1.06680116E-13 -2.79415445E-15
 -8.36920374E-16  1.23141887E-13  7.70322109E-14  3.05113571E-15 -5.52249682E-16
 -9.31466022E-15 -9.45011844E-11  9.45139164E-11 -4.77744924E-15  2.70842812E-15
  7.38359716E-01 -8.02929602E-15 -1.83366408E-13  9.91815996E-16  9.17110011E-16
  2.00308848E-15  5.03972303E-13 -7.11425649E-14  2.29892226E-15 -4.22108997E-15
 -2.68338315E-13  1.30406137E-14 -2.72773512E-15  2.66996167E-15 -6.02621716E-14
 -7.58088998E-11  7.57483369E-11  3.99681222E-15 -6.52253698E-16  5.92045627E-01
 -5.66651498E-16  1.61041547E-14 -2.91637015E-15 -3.21178987E-15  2.91904913E-15
  3.60134375E-15  3.47912263E-14  5.70952548E-15 -9.42918218E-16 -4.87968652E-14
 -2.87041203E-14 -1.92363576E-15  2.19361119E-16  9.36876562E-15 -5.93244245E-01
  5.93244245E-01  4.57446917E-15  1.03830062E-15 -1.08394781E-10  7.76484325E-16
  3.39063070E-14  5.27051675E-17 -1.49757681E-16 -1.60527833E-15 -1.04934577E-13
  2.29707233E-14 -2.62646189E-15  8.68462008E-16  9.78918789E-14 -2.14745331E-14
  7.05825420E-16 -8.69622743E-16  1.37891008E-14  7.05655683E-01 -7.05655683E-01
  1.98282072E-15  6.05372212E-15  1.28932681E-10 -5.97208093E-17 -4.09561892E-15
  9.29938077E-16  2.18221591E-15  3.68101216E-15  4.53285537E-15 -2.35991059E-15
 -3.94545463E-15 -1.39436228E-15  8.67319903E-15  4.11187651E-15  5.10695293E-16
 -7.29875566E-16  1.06258962E-15  9.38676197E-11 -9.38686741E-11 -3.96029674E-15
 -6.73445391E-15 -6.85028627E-01 -2.99191883E-16 -3.25511364E-15  2.51719352E-15
 -1.73716668E-15  1.67048650E-15  1.01380623E-14 -5.59322147E-15  5.62213807E-15
  9.87187137E-16 -1.33079908E-14  5.38657571E-15 -1.24171474E-15 -1.25218908E-15
 -1.62523028E-15 -1.11664386E-10  1.11662098E-10  2.13151567E-15  5.28910181E-15
  8.14813639E-01 -9.01434626E-02 -5.89775505E-01 -7.27589839E-02  1.91552855E-13
  2.12316869E-15  1.83720916E+00  9.33037181E-01 -2.28550141E-13 -1.98357897E-15
  4.69160134E-01  4.03857526E-02  8.59674681E-13  7.06119457E-16  1.01976785E+00
 -5.96245637E-01 -5.96245637E-01  3.35727368E-13  2.02607053E-15  2.06212776E-15
  5.97119656E-03 -6.00690876E-01  5.56341361E-01 -1.68385566E-13 -9.00189899E-16