Newtes                                                                  
SP        RB3LYP                                                      6-31+G(d)           
Number of atoms                            I                2
Info1-9                                    I   N=           9
           9           9           0           0           0         110
           1          18        -502
Charge                                     I                0
Multiplicity                               I                1
Number of electrons                        I               14
Number of alpha electrons                  I                7
Number of beta electrons                   I                7
Number of basis functions                  I               38
Number of independent functions            I               38
Number of point charges in /Mol/           I                0
Number of translation vectors              I                0
Atomic numbers                             I   N=           2
           6           8
Nuclear charges                            R   N=           2
  6.00000000E+00  8.00000000E+00
Current cartesian coordinates              R   N=           6
  2.26767136E+00  0.00000000E+00  0.00000000E+00  4.57313724E+00  0.00000000E+00
  0.00000000E+00
Number of symbols in /Mol/                 I                0
Force Field                                I                0
Atom Types                                 C   N=           2
                        
Int Atom Types                             I   N=           2
           0           0
MM charges                                 R   N=           2
  0.00000000E+00  0.00000000E+00
Integer atomic weights                     I   N=           2
          12          16
Real atomic weights                        R   N=           2
  1.20000000E+01  1.59949146E+01
Atom fragment info                         I   N=           2
           0           0
Atom residue num                           I   N=           2
           0           0
Nuclear spins                              I   N=           2
           0           0
Nuclear ZEff                               R   N=           2
 -3.60000000E+00 -5.60000000E+00
Nuclear QMom                               R   N=           2
  0.00000000E+00  0.00000000E+00
Nuclear GFac                               R   N=           2
  0.00000000E+00  0.00000000E+00
MicOpt                                     I   N=           2
          -1          -1
Number of residues                         I                0
Number of secondary structures             I                0
Number of contracted shells                I               10
Number of primitive shells                 I               24
Pure/Cartesian d shells                    I                1
Pure/Cartesian f shells                    I                0
Highest angular momentum                   I                2
Largest degree of contraction              I                6
Shell types                                I   N=          10
           0          -1          -1          -1           2           0
          -1          -1          -1           2
Number of primitives per shell             I   N=          10
           6           3           1           1           1           6
           3           1           1           1
Shell to atom map                          I   N=          10
           1           1           1           1           1           2
           2           2           2           2
Primitive exponents                        R   N=          24
  3.04752488E+03  4.57369518E+02  1.03948685E+02  2.92101553E+01  9.28666296E+00
  3.16392696E+00  7.86827235E+00  1.88128854E+00  5.44249258E-01  1.68714478E-01
  4.38000000E-02  8.00000000E-01  5.48467166E+03  8.25234946E+02  1.88046958E+02
  5.29645000E+01  1.68975704E+01  5.79963534E+00  1.55396162E+01  3.59993359E+00
  1.01376175E+00  2.70005823E-01  8.45000000E-02  8.00000000E-01
Contraction coefficients                   R   N=          24
  1.83473713E-03  1.40373228E-02  6.88426223E-02  2.32184443E-01  4.67941348E-01
  3.62311985E-01 -1.19332420E-01 -1.60854152E-01  1.14345644E+00  1.00000000E+00
  1.00000000E+00  1.00000000E+00  1.83107443E-03  1.39501722E-02  6.84450781E-02
  2.32714336E-01  4.70192898E-01  3.58520853E-01 -1.10777550E-01 -1.48026263E-01
  1.13076702E+00  1.00000000E+00  1.00000000E+00  1.00000000E+00
P(S=P) Contraction coefficients            R   N=          24
  0.00000000E+00  0.00000000E+00  0.00000000E+00  0.00000000E+00  0.00000000E+00
  0.00000000E+00  6.89990666E-02  3.16423961E-01  7.44308291E-01  1.00000000E+00
  1.00000000E+00  0.00000000E+00  0.00000000E+00  0.00000000E+00  0.00000000E+00
  0.00000000E+00  0.00000000E+00  0.00000000E+00  7.08742682E-02  3.39752839E-01
  7.27158577E-01  1.00000000E+00  1.00000000E+00  0.00000000E+00
Coordinates of each shell                  R   N=          30
  2.26767136E+00  0.00000000E+00  0.00000000E+00  2.26767136E+00  0.00000000E+00
  0.00000000E+00  2.26767136E+00  0.00000000E+00  0.00000000E+00  2.26767136E+00
  0.00000000E+00  0.00000000E+00  2.26767136E+00  0.00000000E+00  0.00000000E+00
  4.57313724E+00  0.00000000E+00  0.00000000E+00  4.57313724E+00  0.00000000E+00
  0.00000000E+00  4.57313724E+00  0.00000000E+00  0.00000000E+00  4.57313724E+00
  0.00000000E+00  0.00000000E+00  4.57313724E+00  0.00000000E+00  0.00000000E+00
Constraint Structure                       R   N=           6
  2.26767136E+00  0.00000000E+00  0.00000000E+00  4.57313724E+00  0.00000000E+00
  0.00000000E+00
Num ILSW                                   I              100
ILSW                                       I   N=         100
           0           1           0           0           2           0
           0           0           3           0         402          -1
           0           0           0           0           0           0
           0           0           1           0           0           0
           1           1           0           0           0           0
           0           0      100000           0          -1           0
           0           0           0           0           0           0
           0           0           0           1           0           0
           0           0           1           0           0           0
           0           0           4          40           0           0
           0           0           5           0           0           0
           0           0           0           0           0           0
           0           0           0           0           0           0
           0           0           0           0           0           0
           0           0           0           0           0           0
           0           0           0           0           0           0
           0           0           0           0
Num RLSW                                   I               40
RLSW                                       R   N=          40
  8.00000000E-01  7.20000000E-01  1.00000000E+00  8.10000000E-01  2.00000000E-01
  0.00000000E+00  0.00000000E+00  1.00000000E+00  0.00000000E+00  0.00000000E+00
  0.00000000E+00  0.00000000E+00  1.00000000E+00  0.00000000E+00  0.00000000E+00
  0.00000000E+00  0.00000000E+00  1.00000000E+00  0.00000000E+00  0.00000000E+00
  0.00000000E+00  0.00000000E+00  1.00000000E+00  0.00000000E+00  0.00000000E+00
  0.00000000E+00  0.00000000E+00  1.00000000E+00  0.00000000E+00  0.00000000E+00
  0.00000000E+00  0.00000000E+00  0.00000000E+00  0.00000000E+00  0.00000000E+00
  0.00000000E+00  0.00000000E+00  0.00000000E+00  1.00000000E+00  1.00000000E+00
MxBond                                     I                1
NBond                                      I   N=           2
           1           1
IBond                                      I   N=           2
           2           1
RBond                                      R   N=           2
  2.00000000E+00  2.00000000E+00
Virial Ratio                               R      2.012053080407677E+00
SCF Energy                                 R     -1.133045936406189E+02
Total Energy                               R     -1.133045936406189E+02
RMS Density                                R      7.960737212496363E-09
External E-field                           R   N=          35
  0.00000000E+00  0.00000000E+00  0.00000000E+00  0.00000000E+00  0.00000000E+00
  0.00000000E+00  0.00000000E+00  0.00000000E+00  0.00000000E+00  0.00000000E+00
  0.00000000E+00  0.00000000E+00  0.00000000E+00  0.00000000E+00  0.00000000E+00
  0.00000000E+00  0.00000000E+00  0.00000000E+00  0.00000000E+00  0.00000000E+00
  0.00000000E+00  0.00000000E+00  0.00000000E+00  0.00000000E+00  0.00000000E+00
  0.00000000E+00  0.00000000E+00  0.00000000E+00  0.00000000E+00  0.00000000E+00
  0.00000000E+00  0.00000000E+00  0.00000000E+00  0.00000000E+00  0.00000000E+00
IOpCl                                      I                0
IROHF                                      I                0
Alpha Orbital Energies                     R   N=          38
 -1.92761964E+01 -1.03464402E+01 -1.12906320E+00 -5.85043686E-01 -4.56204556E-01
 -4.56204556E-01 -3.94061002E-01 -7.19881390E-02 -7.19881390E-02  2.83011553E-02
  5.58657400E-02  6.95657710E-02  6.95657710E-02  1.77842475E-01  2.07476841E-01
  2.07476841E-01  2.57914941E-01  3.75358558E-01  6.28686230E-01  6.28686230E-01
  6.67232938E-01  1.01013420E+00  1.13365851E+00  1.13492463E+00  1.13492463E+00
  1.46115464E+00  1.47721843E+00  1.47721843E+00  1.49266877E+00  1.49267450E+00
  1.88753601E+00  1.88754105E+00  2.31056432E+00  2.50697603E+00  2.50697603E+00
  2.90168853E+00  3.95714726E+00  4.11975592E+00
Alpha MO coefficients                      R   N=        1444
 -5.84683383E-06  4.03063297E-04  2.90170597E-04  2.96883900E-17 -6.18694928E-17
 -3.95370311E-05 -6.48490134E-04  3.97823832E-16  2.03658845E-16  2.06803540E-03
  1.14105353E-03 -1.25651955E-15  1.99731659E-16 -4.04092584E-04 -1.72102263E-04
 -1.72102263E-04  3.67151861E-16 -1.64173049E-16  2.84784206E-18  9.92656864E-01
  2.52779939E-02 -1.07699852E-03  2.39600038E-16  1.26831025E-16  1.44645194E-02
  2.72330682E-04 -6.65155754E-16  6.21141623E-16 -5.48664665E-03  1.39221782E-04
  1.36695298E-15 -9.77886391E-17 -8.36698701E-03 -8.45310251E-03 -8.45310251E-03
  2.50111680E-16 -3.15989509E-16  9.62011379E-18  9.93177784E-01  4.82368635E-02
  3.21701060E-03  2.15136281E-17  5.55982011E-17 -1.16781114E-02 -1.80309184E-03
 -4.16845266E-16 -1.49180069E-16 -1.62139639E-03 -6.91477074E-04  1.15876774E-15
 -3.34515425E-16 -7.74671587E-03 -9.19206149E-03 -9.19206149E-03 -1.51360834E-16
  4.47517319E-16 -5.92585371E-18 -1.32237970E-04  4.74046193E-04  2.59790991E-04
 -1.09636760E-16 -1.41586636E-16 -2.24516385E-03  1.88388073E-03  6.63962718E-16
 -4.73453376E-16  6.94603745E-03 -3.48463880E-03 -1.09934285E-15 -6.95144069E-17
 -8.14648206E-04  4.96770163E-04  4.96770163E-04 -1.11547446E-16  3.15643335E-16
  2.83804077E-17 -1.05041420E-01  2.07099829E-01  1.96605759E-01 -8.88366696E-15
  1.77666329E-16  7.06679288E-02 -1.08527860E-02  4.32903655E-14  8.22454673E-17
  2.05242892E-02  1.82527163E-02 -1.74390562E-13  1.85222946E-15  2.94019534E-02
 -2.06906685E-02 -2.06906685E-02  3.79716405E-15  5.37949821E-18 -4.88128119E-17
 -2.02860516E-01  4.52085233E-01 -1.61326029E-01  8.05600732E-15  1.06496164E-15
  4.07004213E-01 -4.40800087E-02 -5.60162883E-14  5.29964900E-17 -4.89912357E-02
  3.59525956E-03  1.35967953E-13 -1.40272785E-15  7.72825554E-03 -7.55278135E-03
 -7.55278135E-03  2.39331457E-15  4.62696586E-16  3.20774921E-16  1.48888256E-01
 -3.37016902E-01 -9.74890980E-02 -3.15893281E-15  1.51189259E-15 -3.30599795E-01
 -1.88684498E-02  1.19849175E-14  6.80575296E-16 -4.83321816E-03  6.92897110E-03
 -6.34226747E-14 -6.42094582E-16  3.45127069E-03  1.50275429E-02  1.50275429E-02
  9.71361417E-16  8.83495295E-17 -9.46824396E-17 -1.14481213E-01  2.63807189E-01
  4.53486083E-01  1.58215955E-15  9.20100286E-16  4.25735207E-01  1.86775588E-01
 -1.75891329E-14  9.52792158E-17  5.58287949E-02  3.73815738E-03  4.71981922E-14
  7.77857110E-16 -2.68117218E-02  3.82721992E-03  3.82721992E-03  6.82848240E-16
 -1.83974648E-16  6.33856870E-17  4.44258472E-15  2.43152524E-14 -4.39226452E-15
  1.86877369E-01  2.49349792E-01 -2.39719155E-13 -7.35473682E-14  7.04129546E-02
  9.39517485E-02 -5.22791015E-13 -3.32772853E-13  8.73957273E-03  1.16611800E-02
 -3.63700020E-15  5.38546426E-15  5.95274509E-15  2.19139158E-02  2.92396580E-02
 -3.16110825E-17  1.00113080E-14  4.19592163E-14  3.21725481E-15  3.40205105E-01
  4.53934430E-01 -2.22424774E-13 -6.16472576E-14  2.01605578E-01  2.69001588E-01
  8.71350913E-13 -9.55787904E-14  2.28659167E-02  3.05099092E-02  3.19517421E-14
  2.44334526E-14  2.42961483E-14 -1.97977722E-02 -2.64160953E-02 -2.98590513E-16
  6.57824022E-15  3.00210054E-14 -3.65177603E-15  2.49349792E-01 -1.86877369E-01
 -3.11682383E-13 -9.28317653E-14  9.39517485E-02 -7.04129546E-02 -6.86652247E-13
 -4.37021952E-13  1.16611800E-02 -8.73957273E-03 -4.61410410E-15  7.27260377E-15
  6.95261749E-15  2.92396580E-02 -2.19139158E-02 -1.60835213E-16  1.28431412E-14
  5.67672222E-14  3.83550674E-15  4.53934430E-01 -3.40205105E-01 -2.94814141E-13
 -7.96119646E-14  2.69001588E-01 -2.01605578E-01  1.14156942E-12 -1.22471827E-13
  3.05099092E-02 -2.28659167E-02  4.18314805E-14  3.20067639E-14  3.24225358E-14
 -2.64160953E-02  1.97977722E-02 -1.71987971E-16 -1.36340448E-01  2.78798459E-01
 -4.47051629E-01 -2.52448289E-15  4.20931977E-16  4.96364732E-01 -1.40577347E-01
  2.15957968E-14  5.36081935E-16  8.42259399E-02 -2.35155049E-02 -1.10780982E-13
 -7.27290228E-16 -4.45713108E-02  8.17934167E-03  8.17934167E-03  1.61914967E-15
 -2.09743678E-16  1.18263580E-17  3.97403345E-03 -1.88349179E-02  3.26589383E-01
  4.64511964E-15 -2.39246682E-15  4.61722245E-03  1.50819596E-01 -2.56051124E-14
 -1.36575504E-15  2.94530597E-02  2.67076563E-02  7.89422857E-14  1.77430140E-16
 -5.67444848E-04  3.10518658E-03  3.10518658E-03  8.93540137E-16 -1.10925272E-16
  8.37451789E-17  8.39783962E-15  8.20488673E-14 -3.42503991E-14  2.55716644E-02
  5.43099468E-01 -7.56069391E-13 -3.16475914E-13  2.32787403E-02  4.94401588E-01
 -2.31705805E-12 -1.52151245E-12  1.40840882E-02  2.99122525E-01 -7.15539063E-15
  1.07052475E-14  1.05542027E-14 -6.06326259E-04 -1.28773577E-02  6.21503805E-17
  1.27671811E-14  1.42493835E-13  1.50494044E-14 -1.85781233E-02 -3.94568329E-01
 -5.25168915E-13 -1.93559917E-13 -1.50794326E-02 -3.20261978E-01  3.24732896E-12
 -3.64176801E-13 -1.00325892E-02 -2.13075448E-01  7.97097004E-14  5.80250324E-14
  5.82299891E-14 -4.72978079E-04 -1.00452649E-02 -1.29033727E-16  1.78877471E-13
  1.74004193E-12 -7.31077285E-13  5.43099468E-01 -2.55716644E-02 -1.60662140E-11
 -6.71596202E-12  4.94401588E-01 -2.32787403E-02 -4.92021263E-11 -3.23288077E-11
  2.99122525E-01 -1.40840882E-02 -1.55344080E-13  2.27113777E-13  2.27091482E-13
 -1.28773577E-02  6.06326259E-04 -2.29728235E-16  2.71531508E-13  3.02294121E-12
  3.22879316E-13 -3.94568329E-01  1.85781233E-02 -1.11573348E-11 -4.11197647E-12
 -3.20261978E-01  1.50794326E-02  6.89893775E-11 -7.72595799E-12 -2.13075448E-01
  1.00325892E-02  1.69940769E-12  1.23169157E-12  1.23193546E-12 -1.00452649E-02
  4.72978079E-04 -2.28378285E-17  3.32941045E-02 -1.27802999E-01  1.16085349E-01
  4.08037310E-11  1.58917053E-16  1.05602721E-01  3.71533448E-01  5.49993288E-11
  2.47107653E-16  2.11733838E+00  7.92082522E-01 -1.74754084E-10 -1.04231649E-15
  4.63984930E-03  5.25189028E-03  5.25189028E-03  1.49279777E-12  4.03439130E-17
 -6.37306367E-17  3.38804192E-02 -1.18979189E-01 -5.13911781E-02 -1.10651872E-11
  1.25793906E-16 -2.05096207E-01  4.79749380E-02 -2.82968165E-11 -3.90156412E-16
 -1.55584356E+00  3.80435541E-01  5.92977985E-11  5.52608245E-16 -1.80531992E-02
 -2.02741853E-03 -2.02741853E-03 -1.11597932E-12 -3.41277727E-17 -1.62389234E-16
 -5.74659705E-02  1.22074798E-01 -5.45913689E-02  7.45741219E-11 -1.55356971E-15
  4.22115750E-01 -1.17530617E-01  9.78655846E-11 -1.91293024E-15 -3.88128783E-01
  1.17255712E+00 -3.20259712E-10  6.12882760E-15 -3.20202477E-02  1.52521404E-04
  1.52521404E-04  3.00831152E-12 -4.07364837E-17 -7.37835588E-17  2.48509404E-02
 -8.48184530E-02  3.82734405E-02 -9.23211028E-12 -1.11940232E-16 -1.00613477E-01
  2.72202800E-02 -3.11879475E-11  1.30408186E-16 -2.89014499E-01 -1.21560251E-01
  6.20073203E-11  1.87528526E-17  5.99980026E-03 -4.31973781E-03 -4.31973781E-03
 -2.96520852E-12  1.43134326E-17  5.26765270E-17  1.61681162E-16 -4.99711495E-16
  9.40125856E-17 -6.63859094E-06 -2.83354708E-01 -1.83773287E-15 -2.04519064E-17
 -8.56851718E-06 -3.65729672E-01  5.38890334E-15  1.29595927E-15  2.73978951E-05
  1.16942324E+00 -4.55608517E-17  3.14905566E-17  1.14251745E-16 -2.73460293E-07
 -1.16720946E-02 -2.19082083E-16  8.33314906E-17 -3.34653104E-16 -2.58698438E-16
  2.53770981E-07  1.08316965E-02 -5.28525497E-16 -1.20504758E-15  1.56627831E-06
  6.68533937E-02 -6.21416496E-16  1.66403993E-15 -2.20219716E-06 -9.39962920E-02
  2.90491427E-16 -6.72294617E-17 -2.01654782E-16  3.16070250E-07  1.34908137E-02
  1.95618144E-17 -9.52843004E-12  1.91047932E-11  4.92509450E-12 -2.83354708E-01
  6.63859094E-06  5.95224910E-11  3.76589565E-12 -3.65729672E-01  8.56851718E-06
  1.49285489E-11  3.06975498E-10  1.16942324E+00 -2.73978951E-05 -9.74755412E-12
  2.21236730E-12  2.21266759E-12 -1.16720946E-02  2.73460293E-07 -3.27299368E-17
  1.65466256E-11 -3.50726452E-11  1.90152065E-12  1.08316965E-02 -2.53770981E-07
 -1.43753567E-10 -6.71118184E-12  6.68533937E-02 -1.56627831E-06  2.43602152E-11
  6.00486807E-12 -9.39962920E-02  2.20219716E-06  7.47131948E-12  4.97990460E-12
  4.98030567E-12  1.34908137E-02 -3.16070250E-07  5.78839623E-16 -5.64128210E-02
  3.50522239E-02  1.06047246E-02  3.51286946E-12  8.72004581E-16  1.22885698E+00
 -1.28613879E-02  1.31680533E-11 -1.60782264E-15  6.96771695E-03 -6.35355508E-01
  4.61040191E-11 -1.33883898E-14 -1.15855418E-02 -2.99655567E-02 -2.99655567E-02
  2.56044093E-13 -1.06071907E-16  8.63209515E-17  2.17710846E-02 -2.26350071E-02
 -1.20194329E-01  1.56137520E-11 -2.68783474E-15 -2.13488405E-01 -2.20912804E-01
  3.00650710E-11 -5.18424718E-15 -2.86883079E-01  1.88454312E+00 -1.18977008E-10
  2.11726416E-14  5.01838417E-02  2.49900402E-03  2.49900402E-03 -1.51197140E-12
 -3.58755659E-17  5.76437550E-17 -2.16290314E-15 -6.05955062E-16 -7.82332353E-15
  1.46011481E-05  4.40901393E-02  8.20718350E-14  4.40088549E-15 -5.27058004E-05
 -1.59152285E-01  1.45186170E-13  6.30504846E-14 -3.48609676E-04 -1.05267402E+00
  2.11954587E-15 -2.32750591E-15 -2.10995975E-15 -4.06929323E-07 -1.22877807E-03
  2.84919445E-16 -6.14932812E-15  4.93599293E-15 -1.86693159E-15 -8.10578319E-05
 -2.44765075E-01  8.91868459E-14  7.53867781E-15 -1.46560365E-04 -4.42558824E-01
 -2.93524877E-13  6.22525338E-14  6.14421869E-04  1.85532985E+00 -4.13234932E-15
 -5.12256999E-15 -5.21092343E-15  5.73415513E-06  1.73150562E-02  7.62920564E-18
 -7.99358549E-12 -6.82367225E-13 -2.18244294E-11  4.40901394E-02 -1.46011481E-05
  2.79370767E-10  8.16374425E-13 -1.59152285E-01  5.27058004E-05  4.31037532E-10
  1.71143946E-10 -1.05267402E+00  3.48609676E-04  6.25470782E-12 -7.78625300E-12
 -7.78642439E-12 -1.22877807E-03  4.06929322E-07  7.70209076E-17 -1.75421234E-11
  1.24087319E-11 -1.30919231E-11 -2.44765075E-01  8.10578319E-05  2.65036472E-10
  1.04101848E-11 -4.42558824E-01  1.46560365E-04 -8.77355446E-10  2.54247636E-10
  1.85532985E+00 -6.14421869E-04 -1.22358472E-11 -1.46064431E-11 -1.46062969E-11
  1.73150562E-02 -5.73415513E-06 -4.00726757E-16  1.78108892E-02  1.03046738E-02
  1.67239984E-01  2.64705830E-11 -1.48690366E-15 -9.69460549E-01  1.45582526E-01
 -2.79039640E-11 -1.14315903E-15 -2.84311661E+00 -1.59485795E+00 -2.15856123E-10
  2.11100698E-15 -4.24766245E-02  3.32098920E-02  3.32098920E-02  1.27326998E-13
 -5.65235407E-18 -6.91300030E-17  1.11931650E-01 -1.02925870E-01  6.18751372E-02
 -4.07186017E-11  9.57248187E-17 -1.72437908E+00 -4.36811835E-02 -6.19022717E-11
  1.16946739E-15  5.27980061E+00 -7.65988649E-01  2.95520367E-10  5.38329843E-16
  7.96271090E-02  7.94196702E-02  7.94196702E-02  1.47670442E-12 -3.73503307E-17
  2.93617532E-16  1.23570826E-01 -2.01874502E-01 -3.17698746E-01  6.23481275E-12
  1.86776408E-15 -3.30106844E+00 -2.32692998E+00 -6.56885843E-12 -1.07851578E-15
 -1.70123753E+00 -1.22850253E-01 -2.11533385E-11 -3.52094049E-15  2.99974034E-02
 -1.06395533E-02 -1.06395533E-02  3.50847877E-14  1.52392144E-16 -1.22412846E-16
 -5.37539767E-02  5.92208276E-02 -3.98883736E-01 -4.21788991E-12 -1.04644999E-15
  1.32311865E+00 -1.18561412E+00 -2.93156150E-12 -9.29780353E-16  3.81799549E+00
 -1.13174982E+00  2.49020544E-11  5.46882668E-15 -1.69877876E-02 -1.30994859E-02
 -1.30994859E-02 -1.35568898E-13 -4.31635072E-16  1.68151132E-16 -3.42020865E-16
  1.18605847E-14 -2.48844591E-14  1.99005902E-03 -1.03351157E+00  1.15770663E-14
  4.05479291E-14 -2.99797054E-03  1.55695746E+00  7.77509252E-14  2.93789245E-14
  9.60952256E-04 -4.99058200E-01  3.75079202E-15  1.18788920E-15  8.58831714E-16
  5.53407166E-05 -2.87404897E-02  3.76164879E-16 -1.24744089E-15  1.32351184E-14
 -1.41735817E-15 -1.08951597E-04  5.65826114E-02 -9.78411531E-15 -6.07253740E-17
  4.11886854E-04 -2.13908142E-01 -1.11533274E-13  1.99024574E-14  2.94874028E-04
 -1.53139035E-01  1.15655338E-15  3.08922536E-15  3.68528877E-15 -1.20598288E-04
  6.26311706E-02  2.68417293E-17  4.21560126E-13 -5.87491447E-12  8.26018514E-12
 -1.03351157E+00 -1.99005902E-03 -9.94930517E-12 -1.74545113E-11  1.55695746E+00
  2.99797054E-03 -4.05383543E-11 -1.78384311E-11 -4.99058200E-01 -9.60952256E-04
 -9.50665796E-13 -1.33837426E-13 -1.33780325E-13 -2.87404897E-02 -5.53407166E-05
 -7.83967496E-18  5.69365835E-13 -5.67136419E-12 -6.57992475E-13  5.65826114E-02
  1.08951597E-04  2.83087399E-12 -1.71528241E-12 -2.13908142E-01 -4.11886854E-04
  6.09008359E-11 -9.48903413E-12 -1.53139035E-01 -2.94874028E-04 -5.48604110E-13
 -1.21517362E-12 -1.21572252E-12  6.26311706E-02  1.20598288E-04  2.07750737E-16
  9.03833077E-03  1.24580170E-01 -1.07140895E+00 -7.57314351E-12  8.95380057E-15
  2.07872344E-01  1.56544672E+00  1.16725653E-11 -1.17722531E-14  5.66672520E-01
 -4.02146572E-01 -6.27868631E-12  3.19807005E-15  1.30646368E-01 -7.98838307E-03
 -7.98838307E-03 -2.59237581E-13  7.69393850E-17 -3.11250858E-16 -2.60808092E-02
  1.66822857E-01 -2.80436501E-01 -3.53019725E-13  3.28056861E-15 -5.78922790E-01
 -5.51528714E-02 -1.25518029E-12 -4.58569360E-15 -6.09169807E-01  4.51090847E-01
  8.60868228E-13  4.17671462E-15 -1.36999764E-01  7.29220595E-02  7.29220595E-02
  4.83897812E-13  7.60265366E-17 -4.49936674E-16 -3.92979445E-02 -2.02378408E+00
 -8.35330339E-02  1.90002616E-12  2.00510046E-15  5.26169378E+00  1.43849775E+00
 -1.95766030E-12  3.35904953E-15  7.02333312E-01  1.76906030E-01  2.41763745E-12
 -3.73206354E-15 -9.96775310E-02 -4.86397043E-02 -4.86397043E-02  1.44382017E-13
 -9.47005035E-16  6.36589458E-16 -3.32863075E-03  2.77491647E-01  1.17529644E-02
  4.43685105E-12  1.27215529E-14 -1.32611625E+00  2.14305552E-01 -6.29077287E-12
 -2.27343221E-14 -3.08305626E+00  1.71083416E+00  1.78201504E-12  1.28580689E-14
 -7.83224558E-02  1.48053461E-01  1.48053461E-01 -2.10230264E-13  2.29877541E-15
  4.75508939E-17  3.76504396E-02 -3.40229214E-01  1.98465064E-01  9.64158456E-11
  1.36804970E-13  3.48415772E+00  1.72890664E+00  1.03627317E-10  1.54497392E-13
  8.90841836E-01  4.05575595E-01 -3.23478172E-10 -4.76591149E-13  2.70817772E-01
 -8.80578280E-02 -8.80578280E-02 -1.75952706E-11 -2.69605266E-14 -1.46211791E-15
  2.29693642E-02 -2.30790464E-02 -8.46536359E-01  7.10995858E-10  1.02636985E-12
 -1.18819583E+00  2.60503100E+00 -1.21041995E-09 -1.75029468E-12 -2.88096532E+00
  8.38324222E-02  7.84144555E-10  1.13943121E-12 -7.12626667E-02 -3.67247963E-02
 -3.67247963E-02 -1.34861231E-11 -1.66798672E-14 -9.42045717E-16  2.74546704E-13
 -2.59137193E-12  1.45206867E-12 -1.08834095E-03 -1.28277343E-01  2.59417330E-11
  1.28353472E-11 -1.22767664E-03 -1.44700149E-01  6.65592846E-12  3.03106011E-12
  3.78609518E-03  4.46248238E-01  1.98441354E-12 -6.51031446E-13 -6.46008975E-13
  2.07809977E-04  2.44935300E-02 -3.14673815E-15  1.71954104E-13 -6.42512457E-14
 -6.21184394E-12 -8.15890784E-03 -9.61649952E-01 -9.00885805E-12  1.91783915E-11
  1.39099496E-02  1.63949668E+00 -2.14025034E-11  7.23061259E-13 -9.05143202E-03
 -1.06684734E+00 -4.94347915E-13 -2.41316173E-13 -2.41580885E-13  1.52085397E-04
  1.79255505E-02  1.25052299E-15  2.76745766E-11 -2.59179389E-10  1.47191874E-10
 -1.28277343E-01  1.08834095E-03  2.60927724E-09  1.29124023E-09 -1.44700149E-01
  1.22767664E-03  6.70009198E-10  3.06106044E-10  4.46248238E-01 -3.78609518E-03
  2.00036809E-10 -6.53742939E-11 -6.53708644E-11  2.44935300E-02 -2.07809977E-04
 -1.35127904E-16  1.74053525E-11 -5.63837302E-12 -6.25262387E-10 -9.61649952E-01
  8.15890784E-03 -9.09035232E-10  1.93191396E-09  1.63949668E+00 -1.39099496E-02
 -2.15318277E-09  7.11302371E-11 -1.06684734E+00  9.05143202E-03 -4.91575682E-11
 -2.41528864E-11 -2.41471367E-11  1.79255505E-02 -1.52085397E-04 -1.15468619E-15
 -2.62937228E-02 -2.36571020E-01 -8.76956446E-02 -2.70117564E-12  3.09712823E-14
 -8.53436855E-01 -1.03251854E+00 -2.36734971E-12 -1.36691486E-14  1.35947013E+00
  7.98147935E-01  9.15292846E-12  1.04722922E-14 -8.86556371E-02  6.61883934E-02
  6.61883934E-02  1.16509055E-11 -8.89660285E-14 -2.91925731E-14 -9.54447165E-02
 -1.95691530E+00  3.57246161E-03 -5.26415088E-12  4.68735729E-15  5.40628896E+00
 -7.23402907E-01  5.37410730E-12  3.82339124E-14 -3.05931904E+00  2.26929287E-01
 -8.29433282E-12 -2.66733942E-14 -6.67918199E-01 -3.55370011E-01 -3.55370011E-01
 -9.91927457E-12  8.50283820E-14 -2.64507793E-14 -2.72756791E-13 -2.81654408E-12
 -8.49643996E-13  1.29729459E-01 -1.76498260E-01 -6.85002370E-12 -1.00009856E-11
 -6.72294010E-02  9.14662893E-02  1.56840039E-11  9.19080038E-12  4.49617528E-02
 -6.11709256E-02 -8.84261075E-13  7.19545455E-13  6.79117751E-13 -3.75377375E-01
  5.10704767E-01  2.16983164E-14 -9.86211161E-13 -2.04276014E-11 -1.92709249E-13
  2.68022393E-02 -3.64647213E-02  5.61695150E-11 -6.64954798E-12  1.54500769E-01
 -2.10199880E-01 -3.50492502E-11  2.79682124E-12 -1.00368021E-01  1.36551721E-01
 -6.96459575E-12 -3.61842122E-12 -3.65254010E-12  3.48035133E-01 -4.73505367E-01
  1.54356860E-14  3.64922104E-13  3.76483636E-12  1.13514961E-12 -1.76498260E-01
 -1.29729459E-01  9.17125080E-12  1.33839018E-11  9.14662893E-02  6.72294010E-02
 -2.09957374E-11 -1.23076141E-11 -6.11709256E-02 -4.49617528E-02  1.18290626E-12
 -9.29655472E-13 -9.39745466E-13  5.10704767E-01  3.75377375E-01  6.26661729E-14
  1.31901772E-12  2.73218537E-11  2.58764700E-13 -3.64647213E-02 -2.68022393E-02
 -7.51337319E-11  8.89382587E-12 -2.10199880E-01 -1.54500769E-01  4.68986130E-11
 -3.73595481E-12  1.36551721E-01  1.00368021E-01  9.30934083E-12  4.86962266E-12
  4.85697473E-12 -4.73505367E-01 -3.48035133E-01  5.00446269E-14 -2.51180330E-15
  2.12835090E-15 -3.72201815E-15 -3.93548707E-15  6.07828262E-15 -1.24801714E-13
 -1.08504440E-13 -1.53831375E-16 -3.60983626E-15  9.58345172E-14  6.28830667E-14
  1.27125419E-15  2.87355882E-15 -1.03635082E-14  6.39445645E-01 -6.39445645E-01
  5.96410375E-15 -2.02604653E-14 -1.17922906E-10 -7.64026076E-15 -1.63591062E-13
  2.46186531E-15 -5.57960836E-15 -1.33184348E-15  4.59490409E-13 -6.97633925E-14
  5.24210687E-15  1.26745708E-14 -2.08143337E-13  1.05918631E-15 -2.75338824E-15
 -7.04254601E-15 -5.49134739E-14  5.12717782E-01 -5.12717782E-01 -7.19260356E-15
  1.91321553E-14 -9.45565404E-11 -1.15249625E-15 -6.73864698E-15 -3.90308461E-15
  1.16379571E-14  1.74859615E-14 -3.10063912E-14 -3.84176985E-14 -5.20275682E-15
 -8.74681438E-15  6.32066570E-14  3.61078548E-14  3.06634331E-15  6.98378485E-15
 -3.77630889E-15  1.02128590E-10 -1.02123979E-10 -3.16250486E-14 -4.67897294E-14
  7.38359716E-01 -4.18944403E-15 -8.20219626E-14 -2.84666229E-15  5.76916076E-16
  1.13082814E-15  2.26855043E-13 -2.33410934E-14  1.42219317E-14  2.24765130E-14
 -1.39569714E-13  8.97456920E-15 -8.83178726E-15 -1.59454389E-14 -3.00059201E-14
  8.18715214E-11 -8.19017357E-11  3.17670223E-14  4.32367948E-14  5.92045627E-01
  4.62284786E-16  5.57292642E-17  7.85125752E-15  2.34007127E-15  5.43321771E-17
  2.92644794E-15 -3.88763852E-14 -2.18874488E-15  2.32239050E-15  1.25003124E-13
  6.92772750E-14  1.28668663E-15 -1.66778142E-15 -1.70807225E-14 -5.93244245E-01
  5.93244245E-01  1.77090808E-15 -1.34743989E-15 -7.93089193E-11  3.74641780E-16
 -9.83171248E-14 -1.32910265E-14 -1.13758727E-15  3.39219087E-15  2.37022501E-13
  2.68193213E-15  1.79075272E-15 -4.34512063E-15 -2.58899373E-13  2.58842884E-14
 -8.98578173E-16  2.09579643E-15 -3.99527280E-14  7.05655683E-01 -7.05655683E-01
  3.30812236E-15  1.18282976E-15  9.43344609E-11  2.14606917E-16  2.82622230E-15
  1.31743423E-15 -4.26010256E-16 -9.81878139E-16 -1.76025206E-15 -1.98325544E-15
 -6.20032132E-16 -3.50827478E-16  1.06446086E-14  5.34596045E-15  5.88379214E-16
 -4.50689033E-15 -3.19435066E-15  6.86856404E-11 -6.86815007E-11 -1.99532289E-15
 -1.51458766E-15 -6.85028627E-01 -4.91855373E-16 -1.91274415E-15 -1.55649008E-15
 -1.22560216E-15  3.95118180E-15  1.23294192E-14  1.67664046E-15  3.68279042E-15
 -7.39832045E-15 -1.72050347E-14  1.17028702E-15 -1.67090447E-15  8.58291566E-15
 -4.96296632E-15 -8.16955240E-11  8.16974611E-11 -9.25760786E-16 -3.87376245E-15
  8.14813639E-01 -9.01434626E-02 -5.89775505E-01 -7.27589841E-02  1.93035075E-13
  2.36409623E-15  1.83720916E+00  9.33037181E-01 -2.24654841E-13  2.91885352E-15
  4.69160134E-01  4.03857526E-02  8.56954933E-13 -4.22084276E-16  1.01976785E+00
 -5.96245637E-01 -5.96245637E-01  3.41711529E-13  1.51527993E-14 -2.47028849E-15
  5.97119656E-03 -6.00690876E-01  5.56341361E-01 -1.65944039E-13 -2.09240229E-15